<?xml version="1.0" encoding="UTF-8"?>

<!-- generated on 2022-05-02 09:41:02 by Eclipse SUMO sumo Version 1.12.0
<configuration xmlns:xsi="http://www.w3.org/2001/XMLSchema-instance" xsi:noNamespaceSchemaLocation="http://sumo.dlr.de/xsd/sumoConfiguration.xsd">

    <input>
        <net-file value="nets/turnpike_single/net/turnpike/turnpike.single.net.xml"/>
        <route-files value="nets/turnpike_single/net/turnpike/turnpike.single.rou.xml"/>
        <additional-files value="nets/turnpike_single/net/turnpike/turnpike.single.E1asDetectors.additional.xml,nets/turnpike_single/net/turnpike/turnpike.single.E2asControlRecoveryPoints.additional.xml"/>
    </input>

    <output>
        <fcd-output value="nets/turnpike_single/net/turnpike/turnpike.run.output.fcd.xml"/>
        <tripinfo-output value="nets/turnpike_single/net/turnpike/turnpike.run.tripinfo.fcd.xml"/>
    </output>

    <time>
        <begin value="0"/>
        <end value="3600"/>
        <step-length value="0.5"/>
    </time>

    <report>
        <no-warnings value="true"/>
    </report>

    <traci_server>
        <remote-port value="50213"/>
    </traci_server>

    <random_number>
        <random value="true"/>
    </random_number>

    <gui_only>
        <tracker-interval value="0.5"/>
    </gui_only>

</configuration>
-->

<fcd-export xmlns:xsi="http://www.w3.org/2001/XMLSchema-instance" xsi:noNamespaceSchemaLocation="http://sumo.dlr.de/xsd/fcd_file.xsd">
    <timestep time="0.00">
        <vehicle id="225182646to38913001#1.83.0" x="9185.91" y="10414.98" angle="204.30" type="DEFAULT_VEHTYPE" speed="0.00" pos="5.10" lane="225182646_0" slope="0.00"/>
        <vehicle id="38912992#1to38913001#1.83.0" x="7996.94" y="8147.77" angle="357.92" type="DEFAULT_VEHTYPE" speed="0.00" pos="5.10" lane="38912992#1_0" slope="0.00"/>
    </timestep>
    <timestep time="0.50">
        <vehicle id="225182646to38913001#1.83.0" x="9185.66" y="10414.42" angle="204.30" type="DEFAULT_VEHTYPE" speed="1.23" pos="5.72" lane="225182646_0" slope="0.00"/>
        <vehicle id="225182646to38913001#1.83.1" x="9194.65" y="10411.02" angle="204.30" type="DEFAULT_VEHTYPE" speed="0.00" pos="5.10" lane="225182646_3" slope="0.00"/>
        <vehicle id="225182646to89932034#0.1" x="9191.74" y="10412.34" angle="204.30" type="DEFAULT_VEHTYPE" speed="0.00" pos="5.10" lane="225182646_2" slope="0.00"/>
        <vehicle id="38912992#1to38913001#1.83.0" x="7996.91" y="8148.38" angle="357.92" type="DEFAULT_VEHTYPE" speed="1.23" pos="5.72" lane="38912992#1_0" slope="0.00"/>
    </timestep>
    <timestep time="1.00">
        <vehicle id="225182646to38913001#1.83.0" x="9185.26" y="10413.55" angle="204.30" type="DEFAULT_VEHTYPE" speed="1.91" pos="6.67" lane="225182646_0" slope="0.00"/>
        <vehicle id="225182646to38913001#1.83.1" x="9194.40" y="10410.46" angle="204.30" type="DEFAULT_VEHTYPE" speed="1.23" pos="5.72" lane="225182646_3" slope="0.00"/>
        <vehicle id="225182646to38913001#1.83.2" x="9188.82" y="10413.66" angle="204.30" type="DEFAULT_VEHTYPE" speed="0.00" pos="5.10" lane="225182646_1" slope="0.00"/>
        <vehicle id="225182646to89932034#0.1" x="9191.49" y="10411.78" angle="204.30" type="DEFAULT_VEHTYPE" speed="1.23" pos="5.72" lane="225182646_2" slope="0.00"/>
        <vehicle id="38912992#1to38913001#1.83.0" x="7996.88" y="8149.34" angle="357.92" type="DEFAULT_VEHTYPE" speed="1.91" pos="6.67" lane="38912992#1_0" slope="0.00"/>
    </timestep>
    <timestep time="1.50">
        <vehicle id="225182646to38913001#1.83.0" x="9184.66" y="10412.21" angle="204.30" type="DEFAULT_VEHTYPE" speed="2.94" pos="8.14" lane="225182646_0" slope="0.00"/>
        <vehicle id="225182646to38913001#1.83.1" x="9194.00" y="10409.59" angle="204.30" type="DEFAULT_VEHTYPE" speed="1.91" pos="6.67" lane="225182646_3" slope="0.00"/>
        <vehicle id="225182646to38913001#1.83.2" x="9188.57" y="10413.10" angle="204.30" type="DEFAULT_VEHTYPE" speed="1.23" pos="5.72" lane="225182646_1" slope="0.00"/>
        <vehicle id="225182646to89932034#0.1" x="9191.09" y="10410.91" angle="204.30" type="DEFAULT_VEHTYPE" speed="1.91" pos="6.67" lane="225182646_2" slope="0.00"/>
        <vehicle id="38912992#1to38913001#1.83.0" x="7996.83" y="8150.81" angle="357.92" type="DEFAULT_VEHTYPE" speed="2.94" pos="8.14" lane="38912992#1_0" slope="0.00"/>
    </timestep>
    <timestep time="2.00">
        <vehicle id="225182646to38913001#1.83.0" x="9183.79" y="10410.29" angle="204.30" type="DEFAULT_VEHTYPE" speed="4.20" pos="10.25" lane="225182646_0" slope="0.00"/>
        <vehicle id="225182646to38913001#1.83.1" x="9193.40" y="10408.25" angle="204.30" type="DEFAULT_VEHTYPE" speed="2.94" pos="8.14" lane="225182646_3" slope="0.00"/>
        <vehicle id="225182646to38913001#1.83.2" x="9188.17" y="10412.23" angle="204.30" type="DEFAULT_VEHTYPE" speed="1.91" pos="6.67" lane="225182646_1" slope="0.00"/>
        <vehicle id="225182646to89932034#0.1" x="9190.49" y="10409.57" angle="204.30" type="DEFAULT_VEHTYPE" speed="2.94" pos="8.14" lane="225182646_2" slope="0.00"/>
        <vehicle id="38912992#1to38913001#1.83.0" x="7996.75" y="8152.91" angle="357.92" type="DEFAULT_VEHTYPE" speed="4.20" pos="10.25" lane="38912992#1_0" slope="0.00"/>
    </timestep>
    <timestep time="2.50">
        <vehicle id="225182646to38913001#1.83.0" x="9182.66" y="10407.79" angle="204.30" type="DEFAULT_VEHTYPE" speed="5.49" pos="12.99" lane="225182646_0" slope="0.00"/>
        <vehicle id="225182646to38913001#1.83.1" x="9192.53" y="10406.33" angle="204.30" type="DEFAULT_VEHTYPE" speed="4.20" pos="10.25" lane="225182646_3" slope="0.00"/>
        <vehicle id="225182646to38913001#1.83.2" x="9187.57" y="10410.89" angle="204.30" type="DEFAULT_VEHTYPE" speed="2.94" pos="8.14" lane="225182646_1" slope="0.00"/>
        <vehicle id="225182646to38913001#1.83.3" x="9185.91" y="10414.98" angle="204.30" type="DEFAULT_VEHTYPE" speed="0.00" pos="5.10" lane="225182646_0" slope="0.00"/>
        <vehicle id="225182646to89932034#0.1" x="9189.62" y="10407.65" angle="204.30" type="DEFAULT_VEHTYPE" speed="4.20" pos="10.25" lane="225182646_2" slope="0.00"/>
        <vehicle id="38912992#1to38913001#1.83.0" x="7996.65" y="8155.65" angle="357.92" type="DEFAULT_VEHTYPE" speed="5.49" pos="12.99" lane="38912992#1_0" slope="0.00"/>
        <vehicle id="38912992#1to38913001#1.83.1" x="7996.94" y="8147.77" angle="357.92" type="DEFAULT_VEHTYPE" speed="0.00" pos="5.10" lane="38912992#1_0" slope="0.00"/>
    </timestep>
    <timestep time="3.00">
        <vehicle id="225182646to38913001#1.83.0" x="9181.33" y="10404.85" angle="204.30" type="DEFAULT_VEHTYPE" speed="6.46" pos="16.22" lane="225182646_0" slope="0.00"/>
        <vehicle id="225182646to38913001#1.83.1" x="9191.40" y="10403.83" angle="204.30" type="DEFAULT_VEHTYPE" speed="5.49" pos="12.99" lane="225182646_3" slope="0.00"/>
        <vehicle id="225182646to38913001#1.83.2" x="9186.70" y="10408.97" angle="204.30" type="DEFAULT_VEHTYPE" speed="4.20" pos="10.25" lane="225182646_1" slope="0.00"/>
        <vehicle id="225182646to38913001#1.83.3" x="9185.67" y="10414.45" angle="204.30" type="DEFAULT_VEHTYPE" speed="1.17" pos="5.69" lane="225182646_0" slope="0.00"/>
        <vehicle id="225182646to89932034#0.0" x="9194.65" y="10411.02" angle="204.30" type="DEFAULT_VEHTYPE" speed="0.00" pos="5.10" lane="225182646_3" slope="0.00"/>
        <vehicle id="225182646to89932034#0.1" x="9188.49" y="10405.15" angle="204.30" type="DEFAULT_VEHTYPE" speed="5.49" pos="12.99" lane="225182646_2" slope="0.00"/>
        <vehicle id="225182646to89932034#0.3" x="9191.74" y="10412.34" angle="204.30" type="DEFAULT_VEHTYPE" speed="0.00" pos="5.10" lane="225182646_2" slope="0.00"/>
        <vehicle id="38912992#1to38913001#1.83.0" x="7996.53" y="8158.88" angle="357.92" type="DEFAULT_VEHTYPE" speed="6.46" pos="16.22" lane="38912992#1_0" slope="0.00"/>
        <vehicle id="38912992#1to38913001#1.83.1" x="7996.91" y="8148.35" angle="357.92" type="DEFAULT_VEHTYPE" speed="1.17" pos="5.69" lane="38912992#1_0" slope="0.00"/>
    </timestep>
    <timestep time="3.50">
        <vehicle id="225182646to38913001#1.83.0" x="9179.84" y="10401.55" angle="204.30" type="DEFAULT_VEHTYPE" speed="7.25" pos="19.84" lane="225182646_0" slope="0.00"/>
        <vehicle id="225182646to38913001#1.83.1" x="9190.08" y="10400.89" angle="204.30" type="DEFAULT_VEHTYPE" speed="6.46" pos="16.22" lane="225182646_3" slope="0.00"/>
        <vehicle id="225182646to38913001#1.83.2" x="9185.57" y="10406.47" angle="204.30" type="DEFAULT_VEHTYPE" speed="5.49" pos="12.99" lane="225182646_1" slope="0.00"/>
        <vehicle id="225182646to38913001#1.83.3" x="9185.23" y="10413.48" angle="204.30" type="DEFAULT_VEHTYPE" speed="2.11" pos="6.74" lane="225182646_0" slope="0.00"/>
        <vehicle id="225182646to38913001#1.83.4" x="9188.82" y="10413.66" angle="204.30" type="DEFAULT_VEHTYPE" speed="0.00" pos="5.10" lane="225182646_1" slope="0.00"/>
        <vehicle id="225182646to89932034#0.0" x="9194.41" y="10410.49" angle="204.30" type="DEFAULT_VEHTYPE" speed="1.17" pos="5.69" lane="225182646_3" slope="0.00"/>
        <vehicle id="225182646to89932034#0.1" x="9187.16" y="10402.21" angle="204.30" type="DEFAULT_VEHTYPE" speed="6.46" pos="16.22" lane="225182646_2" slope="0.00"/>
        <vehicle id="225182646to89932034#0.3" x="9191.50" y="10411.81" angle="204.30" type="DEFAULT_VEHTYPE" speed="1.17" pos="5.69" lane="225182646_2" slope="0.00"/>
        <vehicle id="38912992#1to38913001#1.83.0" x="7996.83" y="8162.49" angle="2.83" type="DEFAULT_VEHTYPE" speed="7.25" pos="19.84" lane="38912992#1_0" slope="0.00"/>
        <vehicle id="38912992#1to38913001#1.83.1" x="7996.88" y="8149.41" angle="357.92" type="DEFAULT_VEHTYPE" speed="2.11" pos="6.74" lane="38912992#1_0" slope="0.00"/>
    </timestep>
    <timestep time="4.00">
        <vehicle id="225182646to38913001#1.83.0" x="9178.21" y="10397.93" angle="204.30" type="DEFAULT_VEHTYPE" speed="7.94" pos="23.81" lane="225182646_0" slope="0.00"/>
        <vehicle id="225182646to38913001#1.83.1" x="9188.58" y="10397.59" angle="204.30" type="DEFAULT_VEHTYPE" speed="7.25" pos="19.84" lane="225182646_3" slope="0.00"/>
        <vehicle id="225182646to38913001#1.83.2" x="9184.24" y="10403.53" angle="204.30" type="DEFAULT_VEHTYPE" speed="6.46" pos="16.22" lane="225182646_1" slope="0.00"/>
        <vehicle id="225182646to38913001#1.83.3" x="9184.59" y="10412.07" angle="204.30" type="DEFAULT_VEHTYPE" speed="3.11" pos="8.30" lane="225182646_0" slope="0.00"/>
        <vehicle id="225182646to38913001#1.83.4" x="9188.58" y="10413.13" angle="204.30" type="DEFAULT_VEHTYPE" speed="1.17" pos="5.69" lane="225182646_1" slope="0.00"/>
        <vehicle id="225182646to89932034#0.0" x="9193.98" y="10409.53" angle="204.30" type="DEFAULT_VEHTYPE" speed="2.11" pos="6.74" lane="225182646_3" slope="0.00"/>
        <vehicle id="225182646to89932034#0.1" x="9185.67" y="10398.91" angle="204.30" type="DEFAULT_VEHTYPE" speed="7.25" pos="19.84" lane="225182646_2" slope="0.00"/>
        <vehicle id="225182646to89932034#0.3" x="9191.07" y="10410.85" angle="204.30" type="DEFAULT_VEHTYPE" speed="2.11" pos="6.74" lane="225182646_2" slope="0.00"/>
        <vehicle id="38912992#1to38913001#1.83.0" x="7997.16" y="8166.44" angle="4.82" type="DEFAULT_VEHTYPE" speed="7.94" pos="23.81" lane="38912992#1_0" slope="0.00"/>
        <vehicle id="38912992#1to38913001#1.83.1" x="7996.82" y="8150.96" angle="357.92" type="DEFAULT_VEHTYPE" speed="3.11" pos="8.30" lane="38912992#1_0" slope="0.00"/>
    </timestep>
    <timestep time="4.50">
        <vehicle id="225182646to38913001#1.83.0" x="9176.42" y="10393.96" angle="204.30" type="DEFAULT_VEHTYPE" speed="8.70" pos="28.16" lane="225182646_0" slope="0.00"/>
        <vehicle id="225182646to38913001#1.83.1" x="9186.95" y="10393.97" angle="204.30" type="DEFAULT_VEHTYPE" speed="7.94" pos="23.81" lane="225182646_3" slope="0.00"/>
        <vehicle id="225182646to38913001#1.83.2" x="9182.75" y="10400.23" angle="204.30" type="DEFAULT_VEHTYPE" speed="7.25" pos="19.84" lane="225182646_1" slope="0.00"/>
        <vehicle id="225182646to38913001#1.83.3" x="9183.77" y="10410.25" angle="204.30" type="DEFAULT_VEHTYPE" speed="4.00" pos="10.30" lane="225182646_0" slope="0.00"/>
        <vehicle id="225182646to38913001#1.83.4" x="9188.15" y="10412.17" angle="204.30" type="DEFAULT_VEHTYPE" speed="2.11" pos="6.74" lane="225182646_1" slope="0.00"/>
        <vehicle id="225182646to89932034#0.0" x="9193.33" y="10408.11" angle="204.30" type="DEFAULT_VEHTYPE" speed="3.11" pos="8.30" lane="225182646_3" slope="0.00"/>
        <vehicle id="225182646to89932034#0.1" x="9184.04" y="10395.29" angle="204.30" type="DEFAULT_VEHTYPE" speed="7.94" pos="23.81" lane="225182646_2" slope="0.00"/>
        <vehicle id="225182646to89932034#0.3" x="9190.42" y="10409.43" angle="204.30" type="DEFAULT_VEHTYPE" speed="3.11" pos="8.30" lane="225182646_2" slope="0.00"/>
        <vehicle id="38912992#1to38913001#1.83.0" x="7997.53" y="8170.78" angle="4.82" type="DEFAULT_VEHTYPE" speed="8.70" pos="28.16" lane="38912992#1_0" slope="0.00"/>
        <vehicle id="38912992#1to38913001#1.83.1" x="7996.75" y="8152.96" angle="357.92" type="DEFAULT_VEHTYPE" speed="4.00" pos="10.30" lane="38912992#1_0" slope="0.00"/>
    </timestep>
    <timestep time="5.00">
        <vehicle id="225182646to38913001#1.83.0" x="9174.43" y="10389.56" angle="204.30" type="DEFAULT_VEHTYPE" speed="9.67" pos="33.00" lane="225182646_0" slope="0.00"/>
        <vehicle id="225182646to38913001#1.83.1" x="9185.16" y="10390.00" angle="204.30" type="DEFAULT_VEHTYPE" speed="8.70" pos="28.16" lane="225182646_3" slope="0.00"/>
        <vehicle id="225182646to38913001#1.83.2" x="9181.12" y="10396.61" angle="204.30" type="DEFAULT_VEHTYPE" speed="7.94" pos="23.81" lane="225182646_1" slope="0.00"/>
        <vehicle id="225182646to38913001#1.83.3" x="9182.75" y="10407.98" angle="204.30" type="DEFAULT_VEHTYPE" speed="4.98" pos="12.79" lane="225182646_0" slope="0.00"/>
        <vehicle id="225182646to38913001#1.83.4" x="9187.50" y="10410.75" angle="204.30" type="DEFAULT_VEHTYPE" speed="3.11" pos="8.30" lane="225182646_1" slope="0.00"/>
        <vehicle id="225182646to89932034#0.0" x="9192.51" y="10406.29" angle="204.30" type="DEFAULT_VEHTYPE" speed="4.00" pos="10.30" lane="225182646_3" slope="0.00"/>
        <vehicle id="225182646to89932034#0.1" x="9182.25" y="10391.32" angle="204.30" type="DEFAULT_VEHTYPE" speed="8.70" pos="28.16" lane="225182646_2" slope="0.00"/>
        <vehicle id="225182646to89932034#0.3" x="9189.60" y="10407.61" angle="204.30" type="DEFAULT_VEHTYPE" speed="4.00" pos="10.30" lane="225182646_2" slope="0.00"/>
        <vehicle id="225182646to89932034#0.4" x="9185.91" y="10414.98" angle="204.30" type="DEFAULT_VEHTYPE" speed="0.00" pos="5.10" lane="225182646_0" slope="0.00"/>
        <vehicle id="38912992#1to38913001#1.83.0" x="7998.54" y="8175.51" angle="11.82" type="DEFAULT_VEHTYPE" speed="9.67" pos="33.00" lane="38912992#1_0" slope="0.00"/>
        <vehicle id="38912992#1to38913001#1.83.1" x="7996.66" y="8155.45" angle="357.92" type="DEFAULT_VEHTYPE" speed="4.98" pos="12.79" lane="38912992#1_0" slope="0.00"/>
        <vehicle id="38912992#1to38913001#1.83.2" x="7996.94" y="8147.77" angle="357.92" type="DEFAULT_VEHTYPE" speed="0.00" pos="5.10" lane="38912992#1_0" slope="0.00"/>
    </timestep>
    <timestep time="5.50">
        <vehicle id="225182646to38913001#1.83.0" x="9172.22" y="10384.67" angle="204.30" type="DEFAULT_VEHTYPE" speed="10.71" pos="38.35" lane="225182646_0" slope="0.00"/>
        <vehicle id="225182646to38913001#1.83.1" x="9183.17" y="10385.60" angle="204.30" type="DEFAULT_VEHTYPE" speed="9.67" pos="33.00" lane="225182646_3" slope="0.00"/>
        <vehicle id="225182646to38913001#1.83.2" x="9179.33" y="10392.64" angle="204.30" type="DEFAULT_VEHTYPE" speed="8.70" pos="28.16" lane="225182646_1" slope="0.00"/>
        <vehicle id="225182646to38913001#1.83.3" x="9181.51" y="10405.24" angle="204.30" type="DEFAULT_VEHTYPE" speed="6.00" pos="15.79" lane="225182646_0" slope="0.00"/>
        <vehicle id="225182646to38913001#1.83.4" x="9186.68" y="10408.93" angle="204.30" type="DEFAULT_VEHTYPE" speed="4.00" pos="10.30" lane="225182646_1" slope="0.00"/>
        <vehicle id="225182646to38913001#1.83.7" x="9194.65" y="10411.02" angle="204.30" type="DEFAULT_VEHTYPE" speed="0.00" pos="5.10" lane="225182646_3" slope="0.00"/>
        <vehicle id="225182646to89932034#0.0" x="9191.49" y="10404.02" angle="204.30" type="DEFAULT_VEHTYPE" speed="4.98" pos="12.79" lane="225182646_3" slope="0.00"/>
        <vehicle id="225182646to89932034#0.1" x="9180.26" y="10386.92" angle="204.30" type="DEFAULT_VEHTYPE" speed="9.67" pos="33.00" lane="225182646_2" slope="0.00"/>
        <vehicle id="225182646to89932034#0.3" x="9188.58" y="10405.34" angle="204.30" type="DEFAULT_VEHTYPE" speed="4.98" pos="12.79" lane="225182646_2" slope="0.00"/>
        <vehicle id="225182646to89932034#0.4" x="9185.69" y="10414.50" angle="204.30" type="DEFAULT_VEHTYPE" speed="1.05" pos="5.63" lane="225182646_0" slope="0.00"/>
        <vehicle id="225182646to89932034#0.5" x="9191.74" y="10412.34" angle="204.30" type="DEFAULT_VEHTYPE" speed="0.00" pos="5.10" lane="225182646_2" slope="0.00"/>
        <vehicle id="38912992#1to38913001#1.83.0" x="7999.71" y="8180.73" angle="12.68" type="DEFAULT_VEHTYPE" speed="10.71" pos="38.35" lane="38912992#1_0" slope="0.00"/>
        <vehicle id="38912992#1to38913001#1.83.1" x="7996.55" y="8158.45" angle="357.92" type="DEFAULT_VEHTYPE" speed="6.00" pos="15.79" lane="38912992#1_0" slope="0.00"/>
        <vehicle id="38912992#1to38913001#1.83.2" x="7996.92" y="8148.29" angle="357.92" type="DEFAULT_VEHTYPE" speed="1.05" pos="5.63" lane="38912992#1_0" slope="0.00"/>
    </timestep>
    <timestep time="6.00">
        <vehicle id="225182646to38913001#1.83.0" x="9169.83" y="10379.36" angle="204.30" type="DEFAULT_VEHTYPE" speed="11.65" pos="44.18" lane="225182646_0" slope="0.00"/>
        <vehicle id="225182646to38913001#1.83.1" x="9180.97" y="10380.71" angle="204.30" type="DEFAULT_VEHTYPE" speed="10.71" pos="38.35" lane="225182646_3" slope="0.00"/>
        <vehicle id="225182646to38913001#1.83.2" x="9177.34" y="10388.24" angle="204.30" type="DEFAULT_VEHTYPE" speed="9.67" pos="33.00" lane="225182646_1" slope="0.00"/>
        <vehicle id="225182646to38913001#1.83.3" x="9180.04" y="10401.98" angle="204.30" type="DEFAULT_VEHTYPE" speed="7.16" pos="19.37" lane="225182646_0" slope="0.00"/>
        <vehicle id="225182646to38913001#1.83.4" x="9185.66" y="10406.66" angle="204.30" type="DEFAULT_VEHTYPE" speed="4.98" pos="12.79" lane="225182646_1" slope="0.00"/>
        <vehicle id="225182646to38913001#1.83.7" x="9194.43" y="10410.54" angle="204.30" type="DEFAULT_VEHTYPE" speed="1.05" pos="5.63" lane="225182646_3" slope="0.00"/>
        <vehicle id="225182646to89932034#0.0" x="9190.25" y="10401.28" angle="204.30" type="DEFAULT_VEHTYPE" speed="6.00" pos="15.79" lane="225182646_3" slope="0.00"/>
        <vehicle id="225182646to89932034#0.1" x="9178.05" y="10382.03" angle="204.30" type="DEFAULT_VEHTYPE" speed="10.71" pos="38.35" lane="225182646_2" slope="0.00"/>
        <vehicle id="225182646to89932034#0.2" x="9188.82" y="10413.66" angle="204.30" type="DEFAULT_VEHTYPE" speed="0.00" pos="5.10" lane="225182646_1" slope="0.00"/>
        <vehicle id="225182646to89932034#0.3" x="9187.34" y="10402.60" angle="204.30" type="DEFAULT_VEHTYPE" speed="6.00" pos="15.79" lane="225182646_2" slope="0.00"/>
        <vehicle id="225182646to89932034#0.4" x="9185.23" y="10413.48" angle="204.30" type="DEFAULT_VEHTYPE" speed="2.25" pos="6.75" lane="225182646_0" slope="0.00"/>
        <vehicle id="225182646to89932034#0.5" x="9191.52" y="10411.86" angle="204.30" type="DEFAULT_VEHTYPE" speed="1.05" pos="5.63" lane="225182646_2" slope="0.00"/>
        <vehicle id="38912992#1to38913001#1.83.0" x="8001.16" y="8186.37" angle="14.72" type="DEFAULT_VEHTYPE" speed="11.65" pos="44.18" lane="38912992#1_0" slope="0.00"/>
        <vehicle id="38912992#1to38913001#1.83.1" x="7996.79" y="8162.01" angle="2.17" type="DEFAULT_VEHTYPE" speed="7.16" pos="19.37" lane="38912992#1_0" slope="0.00"/>
        <vehicle id="38912992#1to38913001#1.83.2" x="7996.88" y="8149.42" angle="357.92" type="DEFAULT_VEHTYPE" speed="2.25" pos="6.75" lane="38912992#1_0" slope="0.00"/>
    </timestep>
    <timestep time="6.50">
        <vehicle id="225182646to38913001#1.83.0" x="9167.23" y="10373.61" angle="204.30" type="DEFAULT_VEHTYPE" speed="12.63" pos="50.49" lane="225182646_0" slope="0.00"/>
        <vehicle id="225182646to38913001#1.83.1" x="9178.57" y="10375.40" angle="204.30" type="DEFAULT_VEHTYPE" speed="11.65" pos="44.18" lane="225182646_3" slope="0.00"/>
        <vehicle id="225182646to38913001#1.83.2" x="9175.13" y="10383.35" angle="204.30" type="DEFAULT_VEHTYPE" speed="10.71" pos="38.35" lane="225182646_1" slope="0.00"/>
        <vehicle id="225182646to38913001#1.83.3" x="9178.30" y="10398.13" angle="204.30" type="DEFAULT_VEHTYPE" speed="8.45" pos="23.59" lane="225182646_0" slope="0.00"/>
        <vehicle id="225182646to38913001#1.83.4" x="9184.42" y="10403.92" angle="204.30" type="DEFAULT_VEHTYPE" speed="6.00" pos="15.79" lane="225182646_1" slope="0.00"/>
        <vehicle id="225182646to38913001#1.83.7" x="9193.97" y="10409.52" angle="204.30" type="DEFAULT_VEHTYPE" speed="2.25" pos="6.75" lane="225182646_3" slope="0.00"/>
        <vehicle id="225182646to89932034#0.0" x="9188.78" y="10398.02" angle="204.30" type="DEFAULT_VEHTYPE" speed="7.16" pos="19.37" lane="225182646_3" slope="0.00"/>
        <vehicle id="225182646to89932034#0.1" x="9175.66" y="10376.72" angle="204.30" type="DEFAULT_VEHTYPE" speed="11.65" pos="44.18" lane="225182646_2" slope="0.00"/>
        <vehicle id="225182646to89932034#0.2" x="9188.60" y="10413.18" angle="204.30" type="DEFAULT_VEHTYPE" speed="1.05" pos="5.63" lane="225182646_1" slope="0.00"/>
        <vehicle id="225182646to89932034#0.3" x="9185.87" y="10399.34" angle="204.30" type="DEFAULT_VEHTYPE" speed="7.16" pos="19.37" lane="225182646_2" slope="0.00"/>
        <vehicle id="225182646to89932034#0.4" x="9184.56" y="10411.99" angle="204.30" type="DEFAULT_VEHTYPE" speed="3.27" pos="8.38" lane="225182646_0" slope="0.00"/>
        <vehicle id="225182646to89932034#0.5" x="9191.06" y="10410.84" angle="204.30" type="DEFAULT_VEHTYPE" speed="2.25" pos="6.75" lane="225182646_2" slope="0.00"/>
        <vehicle id="38912992#1to38913001#1.83.0" x="8003.19" y="8192.35" angle="18.70" type="DEFAULT_VEHTYPE" speed="12.63" pos="50.49" lane="38912992#1_0" slope="0.00"/>
        <vehicle id="38912992#1to38913001#1.83.1" x="7997.14" y="8166.23" angle="4.82" type="DEFAULT_VEHTYPE" speed="8.45" pos="23.59" lane="38912992#1_0" slope="0.00"/>
        <vehicle id="38912992#1to38913001#1.83.2" x="7996.82" y="8151.05" angle="357.92" type="DEFAULT_VEHTYPE" speed="3.27" pos="8.38" lane="38912992#1_0" slope="0.00"/>
    </timestep>
    <timestep time="7.00">
        <vehicle id="225182646to38913001#1.83.0" x="9164.49" y="10367.54" angle="204.30" type="DEFAULT_VEHTYPE" speed="13.32" pos="57.16" lane="225182646_0" slope="0.00"/>
        <vehicle id="225182646to38913001#1.83.1" x="9175.97" y="10369.65" angle="204.30" type="DEFAULT_VEHTYPE" speed="12.63" pos="50.49" lane="225182646_3" slope="0.00"/>
        <vehicle id="225182646to38913001#1.83.2" x="9172.74" y="10378.04" angle="204.30" type="DEFAULT_VEHTYPE" speed="11.65" pos="44.18" lane="225182646_1" slope="0.00"/>
        <vehicle id="225182646to38913001#1.83.3" x="9176.40" y="10393.93" angle="204.30" type="DEFAULT_VEHTYPE" speed="9.21" pos="28.20" lane="225182646_0" slope="0.00"/>
        <vehicle id="225182646to38913001#1.83.4" x="9182.95" y="10400.66" angle="204.30" type="DEFAULT_VEHTYPE" speed="7.16" pos="19.37" lane="225182646_1" slope="0.00"/>
        <vehicle id="225182646to38913001#1.83.7" x="9193.30" y="10408.03" angle="204.30" type="DEFAULT_VEHTYPE" speed="3.27" pos="8.38" lane="225182646_3" slope="0.00"/>
        <vehicle id="225182646to89932034#0.0" x="9187.04" y="10394.17" angle="204.30" type="DEFAULT_VEHTYPE" speed="8.45" pos="23.59" lane="225182646_3" slope="0.00"/>
        <vehicle id="225182646to89932034#0.1" x="9173.06" y="10370.97" angle="204.30" type="DEFAULT_VEHTYPE" speed="12.63" pos="50.49" lane="225182646_2" slope="0.00"/>
        <vehicle id="225182646to89932034#0.2" x="9188.14" y="10412.16" angle="204.30" type="DEFAULT_VEHTYPE" speed="2.25" pos="6.75" lane="225182646_1" slope="0.00"/>
        <vehicle id="225182646to89932034#0.3" x="9184.13" y="10395.49" angle="204.30" type="DEFAULT_VEHTYPE" speed="8.45" pos="23.59" lane="225182646_2" slope="0.00"/>
        <vehicle id="225182646to89932034#0.4" x="9183.68" y="10410.04" angle="204.30" type="DEFAULT_VEHTYPE" speed="4.27" pos="10.52" lane="225182646_0" slope="0.00"/>
        <vehicle id="225182646to89932034#0.5" x="9190.39" y="10409.35" angle="204.30" type="DEFAULT_VEHTYPE" speed="3.27" pos="8.38" lane="225182646_2" slope="0.00"/>
        <vehicle id="38912992#1to38913001#1.83.0" x="8005.65" y="8198.52" angle="22.79" type="DEFAULT_VEHTYPE" speed="13.32" pos="57.16" lane="38912992#1_0" slope="0.00"/>
        <vehicle id="38912992#1to38913001#1.83.1" x="7997.53" y="8170.82" angle="4.82" type="DEFAULT_VEHTYPE" speed="9.21" pos="28.20" lane="38912992#1_0" slope="0.00"/>
        <vehicle id="38912992#1to38913001#1.83.2" x="7996.74" y="8153.18" angle="357.92" type="DEFAULT_VEHTYPE" speed="4.27" pos="10.52" lane="38912992#1_0" slope="0.00"/>
    </timestep>
    <timestep time="7.50">
        <vehicle id="225182646to38913001#1.83.0" x="9161.56" y="10361.06" angle="204.30" type="DEFAULT_VEHTYPE" speed="14.21" pos="64.26" lane="225182646_0" slope="0.00"/>
        <vehicle id="225182646to38913001#1.83.1" x="9173.23" y="10363.58" angle="204.30" type="DEFAULT_VEHTYPE" speed="13.32" pos="57.16" lane="225182646_3" slope="0.00"/>
        <vehicle id="225182646to38913001#1.83.12" x="9185.91" y="10414.98" angle="204.30" type="DEFAULT_VEHTYPE" speed="0.00" pos="5.10" lane="225182646_0" slope="0.00"/>
        <vehicle id="225182646to38913001#1.83.2" x="9170.14" y="10372.29" angle="204.30" type="DEFAULT_VEHTYPE" speed="12.63" pos="50.49" lane="225182646_1" slope="0.00"/>
        <vehicle id="225182646to38913001#1.83.3" x="9174.30" y="10389.28" angle="204.30" type="DEFAULT_VEHTYPE" speed="10.21" pos="33.30" lane="225182646_0" slope="0.00"/>
        <vehicle id="225182646to38913001#1.83.4" x="9181.21" y="10396.81" angle="204.30" type="DEFAULT_VEHTYPE" speed="8.45" pos="23.59" lane="225182646_1" slope="0.00"/>
        <vehicle id="225182646to38913001#1.83.7" x="9192.42" y="10406.08" angle="204.30" type="DEFAULT_VEHTYPE" speed="4.27" pos="10.52" lane="225182646_3" slope="0.00"/>
        <vehicle id="225182646to89932034#0.0" x="9185.14" y="10389.97" angle="204.30" type="DEFAULT_VEHTYPE" speed="9.21" pos="28.20" lane="225182646_3" slope="0.00"/>
        <vehicle id="225182646to89932034#0.1" x="9170.32" y="10364.90" angle="204.30" type="DEFAULT_VEHTYPE" speed="13.32" pos="57.16" lane="225182646_2" slope="0.00"/>
        <vehicle id="225182646to89932034#0.2" x="9187.47" y="10410.67" angle="204.30" type="DEFAULT_VEHTYPE" speed="3.27" pos="8.38" lane="225182646_1" slope="0.00"/>
        <vehicle id="225182646to89932034#0.3" x="9182.23" y="10391.29" angle="204.30" type="DEFAULT_VEHTYPE" speed="9.21" pos="28.20" lane="225182646_2" slope="0.00"/>
        <vehicle id="225182646to89932034#0.4" x="9182.58" y="10407.60" angle="204.30" type="DEFAULT_VEHTYPE" speed="5.37" pos="13.20" lane="225182646_0" slope="0.00"/>
        <vehicle id="225182646to89932034#0.5" x="9189.51" y="10407.40" angle="204.30" type="DEFAULT_VEHTYPE" speed="4.27" pos="10.52" lane="225182646_2" slope="0.00"/>
        <vehicle id="38912992#1to38913001#1.83.0" x="8008.73" y="8204.93" angle="25.66" type="DEFAULT_VEHTYPE" speed="14.21" pos="64.26" lane="38912992#1_0" slope="0.00"/>
        <vehicle id="38912992#1to38913001#1.83.1" x="7998.60" y="8175.80" angle="12.30" type="DEFAULT_VEHTYPE" speed="10.21" pos="33.30" lane="38912992#1_0" slope="0.00"/>
        <vehicle id="38912992#1to38913001#1.83.2" x="7996.64" y="8155.87" angle="357.92" type="DEFAULT_VEHTYPE" speed="5.37" pos="13.20" lane="38912992#1_0" slope="0.00"/>
        <vehicle id="38912992#1to38913001#1.83.3" x="7996.94" y="8147.77" angle="357.92" type="DEFAULT_VEHTYPE" speed="0.00" pos="5.10" lane="38912992#1_0" slope="0.00"/>
    </timestep>
    <timestep time="8.00">
        <vehicle id="225182646to38913001#1.83.0" x="9158.48" y="10354.24" angle="204.30" type="DEFAULT_VEHTYPE" speed="14.97" pos="71.74" lane="225182646_0" slope="0.00"/>
        <vehicle id="225182646to38913001#1.83.1" x="9170.30" y="10357.11" angle="204.30" type="DEFAULT_VEHTYPE" speed="14.21" pos="64.26" lane="225182646_3" slope="0.00"/>
        <vehicle id="225182646to38913001#1.83.12" x="9185.69" y="10414.49" angle="204.30" type="DEFAULT_VEHTYPE" speed="1.09" pos="5.64" lane="225182646_0" slope="0.00"/>
        <vehicle id="225182646to38913001#1.83.2" x="9167.40" y="10366.22" angle="204.30" type="DEFAULT_VEHTYPE" speed="13.32" pos="57.16" lane="225182646_1" slope="0.00"/>
        <vehicle id="225182646to38913001#1.83.3" x="9172.07" y="10384.32" angle="204.30" type="DEFAULT_VEHTYPE" speed="10.87" pos="38.74" lane="225182646_0" slope="0.00"/>
        <vehicle id="225182646to38913001#1.83.4" x="9179.31" y="10392.61" angle="204.30" type="DEFAULT_VEHTYPE" speed="9.21" pos="28.20" lane="225182646_1" slope="0.00"/>
        <vehicle id="225182646to38913001#1.83.5" x="9194.65" y="10411.02" angle="204.30" type="DEFAULT_VEHTYPE" speed="0.00" pos="5.10" lane="225182646_3" slope="0.00"/>
        <vehicle id="225182646to38913001#1.83.7" x="9191.32" y="10403.64" angle="204.30" type="DEFAULT_VEHTYPE" speed="5.37" pos="13.20" lane="225182646_3" slope="0.00"/>