<?xml version="1.0" encoding="UTF-8"?>

<!-- generated on 2022-05-02 09:41:02 by Eclipse SUMO sumo Version 1.12.0
<configuration xmlns:xsi="http://www.w3.org/2001/XMLSchema-instance" xsi:noNamespaceSchemaLocation="http://sumo.dlr.de/xsd/sumoConfiguration.xsd">

    <input>
        <net-file value="nets/turnpike_single/net/turnpike/turnpike.single.net.xml"/>
        <route-files value="nets/turnpike_single/net/turnpike/turnpike.single.rou.xml"/>
        <additional-files value="nets/turnpike_single/net/turnpike/turnpike.single.E1asDetectors.additional.xml,nets/turnpike_single/net/turnpike/turnpike.single.E2asControlRecoveryPoints.additional.xml"/>
    </input>

    <output>
        <fcd-output value="nets/turnpike_single/net/turnpike/turnpike.run.output.fcd.xml"/>
        <tripinfo-output value="nets/turnpike_single/net/turnpike/turnpike.run.tripinfo.fcd.xml"/>
    </output>

    <time>
        <begin value="0"/>
        <end value="3600"/>
        <step-length value="0.5"/>
    </time>

    <report>
        <no-warnings value="true"/>
    </report>

    <traci_server>
        <remote-port value="50213"/>
    </traci_server>

    <random_number>
        <random value="true"/>
    </random_number>

    <gui_only>
        <tracker-interval value="0.5"/>
    </gui_only>

</configuration>
-->

<tripinfos xmlns:xsi="http://www.w3.org/2001/XMLSchema-instance" xsi:noNamespaceSchemaLocation="http://sumo.dlr.de/xsd/tripinfo_file.xsd">
</tripinfos>
