<?xml version="1.0" encoding="UTF-8"?>

<!-- generated on 2022-05-04 17:08:46 by Eclipse SUMO sumo Version 1.11.0
<configuration xmlns:xsi="http://www.w3.org/2001/XMLSchema-instance" xsi:noNamespaceSchemaLocation="http://sumo.dlr.de/xsd/sumoConfiguration.xsd">

    <input>
        <net-file value="maml_rl/envs/turnpike/nets/turnpike_single/net/turnpike/turnpike.single.net.xml"/>
        <route-files value="maml_rl/envs/turnpike/nets/turnpike_single/net/turnpike/turnpike.single.rou.xml"/>
        <additional-files value="maml_rl/envs/turnpike/nets/turnpike_single/net/turnpike/turnpike.single.E1asDetectors.additional.xml,maml_rl/envs/turnpike/nets/turnpike_single/net/turnpike/turnpike.single.E2asControlRecoveryPoints.additional.xml"/>
    </input>

    <output>
        <fcd-output value="maml_rl/envs/turnpike/nets/turnpike_single/net/turnpike/turnpike.run.output.fcd.xml"/>
        <tripinfo-output value="maml_rl/envs/turnpike/nets/turnpike_single/net/turnpike/turnpike.run.tripinfo.fcd.xml"/>
    </output>

    <time>
        <begin value="0"/>
        <end value="3600"/>
        <step-length value="0.5"/>
    </time>

    <report>
        <no-warnings value="true"/>
    </report>

    <traci_server>
        <remote-port value="62248"/>
    </traci_server>

    <random_number>
        <random value="true"/>
    </random_number>

    <gui_only>
        <tracker-interval value="0.5"/>
    </gui_only>

</configuration>
-->

<tripinfos xmlns:xsi="http://www.w3.org/2001/XMLSchema-instance" xsi:noNamespaceSchemaLocation="http://sumo.dlr.de/xsd/tripinfo_file.xsd">
    <tripinfo id="225182646to89932034#0.0" depart="0.50" departLane="225182646_1" departPos="5.10" departSpeed="0.00" departDelay="0.50" arrival="80.00" arrivalLane="89932034#0_0" arrivalPos="261.24" arrivalSpeed="23.13" duration="79.50" routeLength="2501.83" waitingTime="0.00" waitingCount="0" stopTime="0.00" timeLoss="12.25" rerouteNo="1" devices="tripinfo_225182646to89932034#0.0 routing_225182646to89932034#0.0 fcd_225182646to89932034#0.0" vType="DEFAULT_VEHTYPE@225182646to89932034#0.0" speedFactor="1.07" vaporized=""/>
    <tripinfo id="225182646to89932034#0.1" depart="3.00" departLane="225182646_3" departPos="5.10" departSpeed="0.00" departDelay="1.34" arrival="82.50" arrivalLane="89932034#0_0" arrivalPos="261.24" arrivalSpeed="22.73" duration="79.50" routeLength="2501.83" waitingTime="0.00" waitingCount="0" stopTime="0.00" timeLoss="11.84" rerouteNo="1" devices="tripinfo_225182646to89932034#0.1 routing_225182646to89932034#0.1 fcd_225182646to89932034#0.1" vType="DEFAULT_VEHTYPE@225182646to89932034#0.1" speedFactor="1.04" vaporized=""/>
    <tripinfo id="225182646to89932034#0.2" depart="4.00" departLane="225182646_1" departPos="5.10" departSpeed="0.00" departDelay="0.68" arrival="85.50" arrivalLane="89932034#0_0" arrivalPos="261.24" arrivalSpeed="21.59" duration="81.50" routeLength="2501.83" waitingTime="0.00" waitingCount="0" stopTime="0.00" timeLoss="11.65" rerouteNo="1" devices="tripinfo_225182646to89932034#0.2 routing_225182646to89932034#0.2 fcd_225182646to89932034#0.2" vType="DEFAULT_VEHTYPE@225182646to89932034#0.2" speedFactor="0.99" vaporized=""/>
    <tripinfo id="225182646to89932034#0.4" depart="7.50" departLane="225182646_0" departPos="5.10" departSpeed="0.00" departDelay="0.86" arrival="87.00" arrivalLane="89932034#0_0" arrivalPos="261.24" arrivalSpeed="25.29" duration="79.50" routeLength="2501.83" waitingTime="0.00" waitingCount="0" stopTime="0.00" timeLoss="14.18" rerouteNo="1" devices="tripinfo_225182646to89932034#0.4 routing_225182646to89932034#0.4 fcd_225182646to89932034#0.4" vType="DEFAULT_VEHTYPE@225182646to89932034#0.4" speedFactor="1.14" vaporized=""/>
    <tripinfo id="225182646to89932034#0.5" depart="10.50" departLane="225182646_3" departPos="5.10" departSpeed="0.00" departDelay="2.20" arrival="91.00" arrivalLane="89932034#0_0" arrivalPos="261.24" arrivalSpeed="22.24" duration="80.50" routeLength="2501.83" waitingTime="0.00" waitingCount="0" stopTime="0.00" timeLoss="11.59" rerouteNo="1" devices="tripinfo_225182646to89932034#0.5 routing_225182646to89932034#0.5 fcd_225182646to89932034#0.5" vType="DEFAULT_VEHTYPE@225182646to89932034#0.5" speedFactor="1.00" vaporized=""/>
    <tripinfo id="225182646to89932034#0.6" depart="10.50" departLane="225182646_1" departPos="5.10" departSpeed="0.00" departDelay="0.53" arrival="93.50" arrivalLane="89932034#0_0" arrivalPos="261.24" arrivalSpeed="21.29" duration="83.00" routeLength="2501.83" waitingTime="0.00" waitingCount="0" stopTime="0.00" timeLoss="11.24" rerouteNo="1" devices="tripinfo_225182646to89932034#0.6 routing_225182646to89932034#0.6 fcd_225182646to89932034#0.6" vType="DEFAULT_VEHTYPE@225182646to89932034#0.6" speedFactor="0.96" vaporized=""/>
    <tripinfo id="225182646to89932034#0.3" depart="6.50" departLane="225182646_1" departPos="5.10" departSpeed="0.00" departDelay="1.52" arrival="97.00" arrivalLane="89932034#0_0" arrivalPos="261.24" arrivalSpeed="19.02" duration="90.50" routeLength="2501.83" waitingTime="0.00" waitingCount="0" stopTime="0.00" timeLoss="10.18" rerouteNo="1" devices="tripinfo_225182646to89932034#0.3 routing_225182646to89932034#0.3 fcd_225182646to89932034#0.3" vType="DEFAULT_VEHTYPE@225182646to89932034#0.3" speedFactor="0.86" vaporized=""/>
    <tripinfo id="225182646to89932034#0.8" depart="13.50" departLane="225182646_1" departPos="5.10" departSpeed="0.00" departDelay="0.21" arrival="98.50" arrivalLane="89932034#0_0" arrivalPos="261.24" arrivalSpeed="21.18" duration="85.00" routeLength="2501.83" waitingTime="0.00" waitingCount="0" stopTime="0.00" timeLoss="16.10" rerouteNo="1" devices="tripinfo_225182646to89932034#0.8 routing_225182646to89932034#0.8 fcd_225182646to89932034#0.8" vType="DEFAULT_VEHTYPE@225182646to89932034#0.8" speedFactor="1.01" vaporized=""/>
    <tripinfo id="225182646to89932034#0.7" depart="14.00" departLane="225182646_3" departPos="5.10" departSpeed="0.00" departDelay="2.37" arrival="99.50" arrivalLane="89932034#0_0" arrivalPos="261.24" arrivalSpeed="22.84" duration="85.50" routeLength="2501.83" waitingTime="0.00" waitingCount="0" stopTime="0.00" timeLoss="17.58" rerouteNo="1" devices="tripinfo_225182646to89932034#0.7 routing_225182646to89932034#0.7 fcd_225182646to89932034#0.7" vType="DEFAULT_VEHTYPE@225182646to89932034#0.7" speedFactor="1.03" vaporized=""/>
    <tripinfo id="225182646to89932034#0.9" depart="16.00" departLane="225182646_0" departPos="5.10" departSpeed="0.00" departDelay="1.05" arrival="101.00" arrivalLane="89932034#0_0" arrivalPos="261.24" arrivalSpeed="21.58" duration="85.00" routeLength="2501.83" waitingTime="0.00" waitingCount="0" stopTime="0.00" timeLoss="14.51" rerouteNo="1" devices="tripinfo_225182646to89932034#0.9 routing_225182646to89932034#0.9 fcd_225182646to89932034#0.9" vType="DEFAULT_VEHTYPE@225182646to89932034#0.9" speedFactor="0.98" vaporized=""/>
    <tripinfo id="225182646to89932034#0.10" depart="18.00" departLane="225182646_1" departPos="5.10" departSpeed="0.00" departDelay="1.39" arrival="102.50" arrivalLane="89932034#0_0" arrivalPos="261.24" arrivalSpeed="21.42" duration="84.50" routeLength="2501.83" waitingTime="0.00" waitingCount="0" stopTime="0.00" timeLoss="13.13" rerouteNo="1" devices="tripinfo_225182646to89932034#0.10 routing_225182646to89932034#0.10 fcd_225182646to89932034#0.10" vType="DEFAULT_VEHTYPE@225182646to89932034#0.10" speedFactor="0.96" vaporized=""/>
    <tripinfo id="225182646to89932034#0.11" depart="19.50" departLane="225182646_3" departPos="5.10" departSpeed="0.00" departDelay="1.23" arrival="104.50" arrivalLane="89932034#0_0" arrivalPos="261.24" arrivalSpeed="20.71" duration="85.00" routeLength="2501.83" waitingTime="0.00" waitingCount="0" stopTime="0.00" timeLoss="11.60" rerouteNo="1" devices="tripinfo_225182646to89932034#0.11 routing_225182646to89932034#0.11 fcd_225182646to89932034#0.11" vType="DEFAULT_VEHTYPE@225182646to89932034#0.11" speedFactor="0.94" vaporized=""/>
    <tripinfo id="225182646to89932034#0.12" depart="20.50" departLane="225182646_1" departPos="5.10" departSpeed="0.00" departDelay="0.57" arrival="106.00" arrivalLane="89932034#0_0" arrivalPos="261.24" arrivalSpeed="22.00" duration="85.50" routeLength="2501.83" waitingTime="0.00" waitingCount="0" stopTime="0.00" timeLoss="16.29" rerouteNo="1" devices="tripinfo_225182646to89932034#0.12 routing_225182646to89932034#0.12 fcd_225182646to89932034#0.12" vType="DEFAULT_VEHTYPE@225182646to89932034#0.12" speedFactor="1.00" vaporized=""/>
    <tripinfo id="225182646to89932034#0.14" depart="25.00" departLane="225182646_3" departPos="5.10" departSpeed="0.00" departDelay="1.75" arrival="107.00" arrivalLane="89932034#0_0" arrivalPos="261.24" arrivalSpeed="23.16" duration="82.00" routeLength="2501.83" waitingTime="0.00" waitingCount="0" stopTime="0.00" timeLoss="14.64" rerouteNo="1" devices="tripinfo_225182646to89932034#0.14 routing_225182646to89932034#0.14 fcd_225182646to89932034#0.14" vType="DEFAULT_VEHTYPE@225182646to89932034#0.14" speedFactor="1.05" vaporized=""/>
    <tripinfo id="225182646to89932034#0.15" depart="26.00" departLane="225182646_2" departPos="5.10" departSpeed="0.00" departDelay="1.09" arrival="109.00" arrivalLane="89932034#0_0" arrivalPos="261.24" arrivalSpeed="22.67" duration="83.00" routeLength="2501.83" waitingTime="0.00" waitingCount="0" stopTime="0.00" timeLoss="15.59" rerouteNo="1" devices="tripinfo_225182646to89932034#0.15 routing_225182646to89932034#0.15 fcd_225182646to89932034#0.15" vType="DEFAULT_VEHTYPE@225182646to89932034#0.15" speedFactor="1.05" vaporized=""/>
    <tripinfo id="225182646to89932034#0.16" depart="27.00" departLane="225182646_1" departPos="5.10" departSpeed="0.00" departDelay="0.42" arrival="1    <tripinfo id="225182646to89932034#0.15" depart="25.50" departLane="225182646_0" departPos="5.10" departSpeed="0.00" departDelay="0.59" arrival="120.00" arrivalLane="89932034#0_0" arrivalPos="261.24" arrivalSpeed="19.92" duration="94.50" routeLength="2501.83" waitingTime="0.00" waitingCount="0" stopTime="0.00" timeLoss="19.13" rerouteNo="1" devices="tripinfo_225182646to89932034#0.15 ro    <tripinfo id="225182646to89932034#0.13" depart="22.50" departLane="225182646_2" departPos="5.10" departSpeed="0.00" departDelay="0.91" arrival="123.50" arrivalLane="89932034#0_0" arrivalPos="261.24" arrivalSpeed="17.39" duration="101.00" routeLength="2501.83" waitingTime="0.00" waitingCount="0" stopTime="0.00" timeLoss="9.61" rerouteNo="1" devices="tripinfo_225182646to89932034#0.13 routing_225182646to89932034#0.13 fcd_225182646to89932034#0.13" vType="DEFAULT_VEHTYPE@225182646to89932034#0.13" speedFactor="0.79" vaporized="    <tripinfo id="225182646to89932034#0.18" depart="30.50" departLane="225182646_1" departPos="5.10" departSpeed="0.00" departDelay="0.60" arrival="127.00" arrivalLane="89932034#0_0" arrivalPos="261.24" arrivalSpeed="20.34" duration="96.50" routeLength="2501.83" waitingTime="0.00" waitingCount="0" stopTime="0.00" timeLoss="11.18" rerouteNo="1" devices="tripinfo_225182646to89932034#0.18 routing_225182646to89932034#0.18 fcd_225182646to89932034#0.18" vType="DEFAULT_VEHTYPE@225182646to89932034#0.18" speedFactor="0.94" vaporized=""/>
    <tripinfo id="225182646to89932034#0.17" depart="33.50" departLane="225182646_3" departPos="5.10" departSpeed="0.00" departDelay="5.26" arrival="129.50" arrivalLane="89932034#0_0" arrivalPos="261.24" arrivalSpeed="21.93" duration="96.00" routeLength="2501.83" waitingTime="0.00" waitingCount="0" stopTime="0.00" timeLoss="12.49" rerouteNo="1" devices="tripinfo_225182646to89932034#0.17 routing_225182646to89932034#0.17 fcd_225182646to89932034#0.17" vType="DEFAULT_VEHTYPE@225182646to89932034#0.17" speedFactor="1.01" vaporized=""/>
    <tripinfo id="225182646to89932034#0.20" depart="34.50" departLane="225182646_1" departPos="5.10" departSpeed="0.00" departDelay="1.28" arrival="131.00" arrivalLane="89932034#0_0" arrivalPos="261.24" arrivalSpeed="23.87" duration="96.50" routeLength="2501.83" waitingTime="0.00" waitingCount="0" stopTime="0.00" timeLoss="14.79" rerouteNo="1" devices="tripinfo_225182646to89932034#0.20 routing_225182646to89932034#0.20 fcd_225182646to89932034#0.20" vType="DEFAULT_VEHTYPE@225182646to89932034#0.20" speedFactor="1.08" vaporized=""/>
    <tripinfo id="225182646to89932034#0.19" depart="34.00" departLane="225182646_0" departPos="5.10" departSpeed="0.00" departDelay="2.44" arrival="132.50" arrivalLane="89932034#0_0" arrivalPos="261.24" arrivalSpeed="21.78" duration="98.50" routeLength="2501.83" waitingTime="0.00" waitingCount="0" stopTime="0.00" timeLoss="15.08" rerouteNo="1" devices="tripinfo_225182646to89932034#0.19 routing_225182646to89932034#0.19 fcd_225182646to89932034#0.19" vType="DEFAULT_VEHTYPE@225182646to89932034#0.19" speedFactor="1.01" vaporized=""/>
    <tripinfo id="225182646to89932034#0.21" depart="37.00" departLane="225182646_3" departPos="5.10" departSpeed="0.00" departDelay="2.12" arrival="134.00" arrivalLane="89932034#0_0" arrivalPos="261.24" arrivalSpeed="22.78" duration="97.00" routeLength="2501.83" waitingTime="0.00" waitingCount="0" stopTime="0.00" timeLoss="14.55" rerouteNo="1" devices="tripinfo_225182646to89932034#0.21 routing_225182646to89932034#0.21 fcd_225182646to89932034#0.21" vType="DEFAULT_VEHTYPE@225182646to89932034#0.21" speedFactor="1.04" vaporized=""/>
    <tripinfo id="225182646to89932034#0.22" depart="37.50" departLane="225182646_1" departPos="5.10" departSpeed="0.00" departDelay="0.96" arrival="137.00" arrivalLane="89932034#0_0" arrivalPos="261.24" arrivalSpeed="21.93" duration="99.50" routeLength="2501.83" waitingTime="0.00" waitingCount="0" stopTime="0.00" timeLoss="15.48" rerouteNo="1" devices="tripinfo_225182646to89932034#0.22 routing_225182646to89932034#0.22 fcd_225182646to89932034#0.22" vType="DEFAULT_VEHTYPE@225182646to89932034#0.22" speedFactor="1.00" vaporized=""/>
    <tripinfo id="225182646to89932034#0.23" depart="39.50" departLane="225182646_3" departPos="5.10" departSpeed="0.00" departDelay="1.30" arrival="138.00" arrivalLane="89932034#0_0" arrivalPos="261.24" arrivalSpeed="23.38" duration="98.50" routeLength="2501.83" waitingTime="0.00" waitingCount="0" stopTime="0.00" timeLoss="16.98" rerouteNo="1" devices="tripinfo_225182646to89932034#0.23 routing_225182646to89932034#0.23 fcd_225182646to89932034#0.23" vType="DEFAULT_VEHTYPE@225182646to89932034#0.23" speedFactor="1.07" vaporized=""/>
    <tripinfo id="38912992#1to38913001#1.83.0" depart="0.00" departLane="38912992#1_0" departPos="5.10" departSpeed="0.00" departDelay="0.00" arrival="141.50" arrivalLane="38913001#1.83_2" arrivalPos="3228.09" arrivalSpeed="28.47" duration="141.50" routeLength="3700.04" waitingTime="0.00" waitingCount="0" stopTime="0.00" timeLoss="9.96" rerouteNo="1" devices="tripinfo_38912992#1to38913001#1.83.0 routing_38912992#1to38913001#1.83.0 fcd_38912992#1to38913001#1.83.0" vType="DEFAULT_VEHTYPE@38912992#1to38913001#1.83.0" speedFactor="1.03" vaporized=""/>
    <tripinfo id="225182646to89932034#0.24" depart="40.00" departLane="225182646_1" departPos="5.10" departSpeed="0.00" departDelay="0.14" arrival="142.00" arrivalLane="89932034#0_0" arrivalPos="261.24" arrivalSpeed="19.70" duration="102.00" routeLength="2501.83" waitingTime="0.00" waitingCount="0" stopTime="0.00" timeLoss="12.71" rerouteNo="1" devices="tripinfo_225182646to89932034#0.24 routing_225182646to89932034#0.24 fcd_225182646to89932034#0.24" vType="DEFAULT_VEHTYPE@225182646to89932034#0.24" speedFactor="0.89" vaporized=""/>
    <tripinfo id="225182646to89932034#0.25" depart="42.50" departLane="225182646_3" departPos="5.10" departSpeed="0.00" departDelay="0.98" arrival="143.50" arrivalLane="89932034#0_0" arrivalPos="261.24" arrivalSpeed="22.52" duration="101.00" routeLength="2501.83" waitingTime="0.00" waitingCount="0" stopTime="0.00" timeLoss="21.65" rerouteNo="1" devices="tripinfo_225182646to89932034#0.25 routing_225182646to89932034#0.25 fcd_225182646to89932034#0.25" vType="DEFAULT_VEHTYPE@225182646to89932034#0.25" speedFactor="1.18" vaporized=""/>
    <tripinfo id="225182646to89932034#0.26" depart="44.00" departLane="225182646_1" departPos="5.10" departSpeed="0.00" departDelay="0.81" arrival="145.00" arrivalLane="89932034#0_0" arrivalPos="261.24" arrivalSpeed="19.93" duration="101.00" routeLength="2501.83" waitingTime="0.00" waitingCount="0" stopTime="0.00" timeLoss="13.65" rerouteNo="1" devices="tripinfo_225182646to89932034#0.26 routing_225182646to89932034#0.26 fcd_225182646to89932034#0.26" vType="DEFAULT_VEHTYPE@225182646to89932034#0.26" speedFactor="0.92" vaporized=""/>
    <tripinfo id="38912992#1to38913001#1.83.1" depart="6.00" departLane="38912992#1_0" departPos="5.10" departSpeed="0.00" departDelay="0.20" arrival="146.50" arrivalLane="38913001#1.83_0" arrivalPos="3228.09" arrivalSpeed="28.63" duration="140.50" routeLength="3700.04" waitingTime="0.00" waitingCount="0" stopTime="0.00" timeLoss="8.90" rerouteNo="1" devices="tripinfo_38912992#1to38913001#1.83.1 routing_38912992#1to38913001#1.83.1 fcd_38912992#1to38913001#1.83.1" vType="DEFAULT_VEHTYPE@38912992#1to38913001#1.83.1" speedFactor="1.04" vaporized=""/>
    <tripinfo id="225182646to89932034#0.27" depart="46.00" departLane="225182646_0" departPos="5.10" departSpeed="0.00" departDelay="1.15" arrival="146.50" arrivalLane="89932034#0_0" arrivalPos="261.24" arrivalSpeed="23.60" duration="100.50" routeLength="2501.83" waitingTime="0.00" waitingCount="0" stopTime="0.00" timeLoss="19.54" rerouteNo="1" devices="tripinfo_225182646to89932034#0.27 routing_225182646to89932034#0.27 fcd_225182646to89932034#0.27" vType="DEFAULT_VEHTYPE@225182646to89932034#0.27" speedFactor="1.11" vaporized=""/>
    <tripinfo id="225182646to89932034#0.28" depart="49.00" departLane="225182646_3" departPos="5.10" departSpeed="0.00" departDelay="2.49" arrival="151.50" arrivalLane="89932034#0_0" arrivalPos="261.24" arrivalSpeed="22.65" duration="102.50" routeLength="2501.83" waitingTime="0.00" waitingCount="0" stopTime="0.00" timeLoss="12.98" rerouteNo="1" devices="tripinfo_225182646to89932034#0.28 routing_225182646to89932034#0.28 fcd_225182646to89932034#0.28" vType="DEFAULT_VEHTYPE@225182646to89932034#0.28" speedFactor="1.05" vaporized=""/>
    <tripinfo id="225182646to89932034#0.29" depart="49.00" departLane="225182646_2" departPos="5.10" departSpeed="0.00" departDelay="0.83" arrival="154.50" arrivalLane="89932034#0_0" arrivalPos="261.24" arrivalSpeed="20.61" duration="105.50" routeLength="2501.83" waitingTime="0.00" waitingCount="0" stopTime="0.00" timeLoss="11.98" rerouteNo="1" devices="tripinfo_225182646to89932034#0.29 routing_225182646to89932034#0.29 fcd_225182646to89932034#0.29" vType="DEFAULT_VEHTYPE@225182646to89932034#0.29" speedFactor="0.93" vaporized=""/>
    <tripinfo id="225182646to89932034#0.30" depart="51.50" departLane="225182646_0" departPos="5.10" departSpeed="0.00" departDelay="1.67" arrival="156.00" arrivalLane="89932034#0_0" arrivalPos="261.24" arrivalSpeed="22.79" duration="104.50" routeLength="2501.83" waitingTime="0.00" waitingCount="0" stopTime="0.00" timeLoss="13.57" rerouteNo="1" devices="tripinfo_225182646to89932034#0.30 routing_225182646to89932034#0.30 fcd_225182646to89932034#0.30" vType="DEFAULT_VEHTYPE@225182646to89932034#0.30" speedFactor="1.04" vaporized=""/>
    <tripinfo id="38912992#1to38913001#1.83.2" depart="12.00" departLane="38912992#1_0" departPos="5.10" departSpeed="0.00" departDelay="0.41" arrival="157.50" arrivalLane="38913001#1.83_2" arrivalPos="3228.09" arrivalSpeed="28.01" duration="145.50" routeLength="3700.04" waitingTime="0.00" waitingCount="0" stopTime="0.00" timeLoss="8.76" rerouteNo="1" devices="tripinfo_38912992#1to38913001#1.83.2 routing_38912992#1to38913001#1.83.2 fcd_38912992#1to38913001#1.83.2" vType="DEFAULT_VEHTYPE@38912992#1to38913001#1.83.2" speedFactor="0.96" vaporized=""/>
    <tripinfo id="225182646to89932034#0.32" depart="53.50" departLane="225182646_3" departPos="5.10" departSpeed="0.00" departDelay="0.35" arrival="157.50" arrivalLane="89932034#0_0" arrivalPos="261.24" arrivalSpeed="22.40" duration="104.00" routeLength="2501.83" waitingTime="0.00" waitingCount="0" stopTime="0.00" timeLoss="12.29" rerouteNo="1" devices="tripinfo_225182646to89932034#0.32 routing_225182646to89932034#0.32 fcd_225182646to89932034#0.32" vType="DEFAULT_VEHTYPE@225182646to89932034#0.32" speedFactor="1.01" vaporized=""/>
    <tripinfo id="38912992#1to38913001#1.83.3" depart="17.50" departLane="38912992#1_0" departPos="5.10" departSpeed="0.00" departDelay="0.11" arrival="158.00" arrivalLane="38913001#1.83_3" arrivalPos="3228.09" arrivalSpeed="29.03" duration="140.50" routeLength="3700.04" waitingTime="0.00" waitingCount="0" stopTime="0.00" timeLoss="9.81" rerouteNo="1" devices="tripinfo_38912992#1to38913001#1.83.3 routing_38912992#1to38913001#1.83.3 fcd_38912992#1to38913001#1.83.3" vType="DEFAULT_VEHTYPE@38912992#1to38913001#1.83.3" speedFactor="1.08" vaporized=""/>
    <tripinfo id="225182646to89932034#0.31" depart="54.00" departLane="225182646_0" departPos="5.10" departSpeed="0.00" departDelay="2.51" arrival="160.50" arrivalLane="89932034#0_0" arrivalPos="261.24" arrivalSpeed="19.56" duration="106.50" routeLength="2501.83" waitingTime="0.00" waitingCount="0" stopTime="0.00" timeLoss="11.47" rerouteNo="1" devices="tripinfo_225182646to89932034#0.31 routing_225182646to89932034#0.31 fcd_225182646to89932034#0.31" vType="DEFAULT_VEHTYPE@225182646to89932034#0.31" speedFactor="0.90" vaporized=""/>
    <tripinfo id="225182646to89932034#0.33" depart="55.00" departLane="225182646_2" departPos="5.10" departSpeed="0.00" departDelay="0.19" arrival="162.00" arrivalLane="89932034#0_0" arrivalPos="261.24" arrivalSpeed="22.20" duration="107.00" routeLength="2501.83" waitingTime="0.00" waitingCount="0" stopTime="0.00" timeLoss="14.91" rerouteNo="1" devices="tripinfo_225182646to89932034#0.33 routing_225182646to89932034#0.33 fcd_225182646to89932034#0.33" vType="DEFAULT_VEHTYPE@225182646to89932034#0.33" speedFactor="1.00" vaporized=""/>
    <tripinfo id="225182646to89932034#0.34" depart="57.00" departLane="225182646_0" departPos="5.10" departSpeed="0.00" departDelay="0.53" arrival="163.00" arrivalLane="89932034#0_0" arrivalPos="261.24" arrivalSpeed="22.50" duration="106.00" routeLength="2501.83" waitingTime="0.00" waitingCount="0" stopTime="0.00" timeLoss="14.68" rerouteNo="1" devices="tripinfo_225182646to89932034#0.34 routing_225182646to89932034#0.34 fcd_225182646to89932034#0.34" vType="DEFAULT_VEHTYPE@225182646to89932034#0.34" speedFactor="1.01" vaporized=""/>
    <tripinfo id="225182646to89932034#0.35" depart="58.50" departLane="225182646_2" departPos="5.10" departSpeed="0.00" departDelay="0.37" arrival="165.00" arrivalLane="89932034#0_0" arrivalPos="261.24" arrivalSpeed="20.36" duration="106.50" routeLength="2501.83" waitingTime="0.00" waitingCount="0" stopTime="0.00" timeLoss="12.47" rerouteNo="1" devices="tripinfo_225182646to89932034#0.35 routing_225182646to89932034#0.35 fcd_225182646to89932034#0.35" vType="DEFAULT_VEHTYPE@225182646to89932034#0.35" speedFactor="0.94" vaporized=""/>
    <tripinfo id="225182646to89932034#0.36" depart="60.00" departLane="225182646_1" departPos="5.10" departSpeed="0.00" departDelay="0.20" arrival="169.00" arrivalLane="89932034#0_0" arrivalPos="261.24" arrivalSpeed="17.21" duration="109.00" routeLength="2501.83" waitingTime="0.00" waitingCount="0" stopTime="0.00" timeLoss="9.56" rerouteNo="1" devices="tripinfo_225182646to89932034#0.36 routing_225182646to89932034#0.36 fcd_225182646to89932034#0.36" vType="DEFAULT_VEHTYPE@225182646to89932034#0.36" speedFactor="0.80" vaporized=""/>
    <tripinfo id="225182646to89932034#0.37" depart="62.50" departLane="225182646_3" departPos="5.10" departSpeed="0.00" departDelay="1.04" arrival="170.00" arrivalLane="89932034#0_0" arrivalPos="261.24" arrivalSpeed="18.73" duration="107.50" routeLength="2501.83" waitingTime="0.00" waitingCount="0" stopTime="0.00" timeLoss="11.51" rerouteNo="1" devices="tripinfo_225182646to89932034#0.37 routing_225182646to89932034#0.37 fcd_225182646to89932034#0.37" vType="DEFAULT_VEHTYPE@225182646to89932034#0.37" speedFactor="0.87" vaporized=""/>
    <tripinfo id="38912992#1to38913001#1.83.5" depart="29.00" departLane="38912992#1_0" departPos="5.10" departSpeed="0.00" departDelay="0.02" arrival="172.50" arrivalLane="38913001#1.83_2" arrivalPos="3228.09" arrivalSpeed="28.09" duration="143.50" routeLength="3700.04" waitingTime="0.00" waitingCount="0" stopTime="0.00" timeLoss="8.84" rerouteNo="1" devices="tripinfo_38912992#1to38913001#1.83.5 routing_38912992#1to38913001#1.83.5 fcd_38912992#1to38913001#1.83.5" vType="DEFAULT_VEHTYPE@38912992#1to38913001#1.83.5" speedFactor="0.98" vaporized=""/>
    <tripinfo id="225182646to89932034#0.39" depart="65.00" departLane="225182646_2" departPos="5.10" departSpeed="0.00" departDelay="0.22" arrival="172.50" arrivalLane="89932034#0_0" arrivalPos="261.24" arrivalSpeed="17.97" duration="107.50" routeLength="2501.83" waitingTime="0.00" waitingCount="0" stopTime="0.00" timeLoss="9.51" rerouteNo="1" devices="tripinfo_225182646to89932034#0.39 routing_225182646to89932034#0.39 fcd_225182646to89932034#0.39" vType="DEFAULT_VEHTYPE@225182646to89932034#0.39" speedFactor="0.83" vaporized=""/>
    <tripinfo id="225182646to89932034#0.38" depart="65.50" departLane="225182646_3" departPos="5.10" departSpeed="0.00" departDelay="2.38" arrival="174.00" arrivalLane="89932034#0_0" arrivalPos="261.24" arrivalSpeed="19.81" duration="108.50" routeLength="2501.83" waitingTime="0.00" waitingCount="0" stopTime="0.00" timeLoss="13.07" rerouteNo="1" devices="tripinfo_225182646to89932034#0.38 routing_225182646to89932034#0.38 fcd_225182646to89932034#0.38" vType="DEFAULT_VEHTYPE@225182646to89932034#0.38" speedFactor="0.90" vaporized=""/>
    <tripinfo id="38912992#1to38913001#1.83.6" depart="35.00" departLane="38912992#1_0" departPos="5.10" departSpeed="0.00" departDelay="0.22" arrival="175.00" arrivalLane="38913001#1.83_3" arrivalPos="3228.09" arrivalSpeed="28.77" duration="140.00" routeLength="3700.04" waitingTime="0.00" waitingCount="0" stopTime="0.00" timeLoss="9.80" rerouteNo="1" devices="tripinfo_38912992#1to38913001#1.83.6 routing_38912992#1to38913001#1.83.6 fcd_38912992#1to38913001#1.83.6" vType="DEFAULT_VEHTYPE@38912992#1to38913001#1.83.6" speedFactor="1.10" vaporized=""/>
    <tripinfo id="225182646to89932034#0.41" depart="68.50" departLane="225182646_3" departPos="5.10" departSpeed="0.00" departDelay="0.40" arrival="175.00" arrivalLane="89932034#0_0" arrivalPos="261.24" arrivalSpeed="21.64" duration="106.50" routeLength="2501.83" waitingTime="0.00" waitingCount="0" stopTime="0.00" timeLoss="14.66" rerouteNo="1" devices="tripinfo_225182646to89932034#0.41 routing_225182646to89932034#0.41 fcd_225182646to89932034#0.41" vType="DEFAULT_VEHTYPE@225182646to89932034#0.41" speedFactor="1.00" vaporized=""/>
    <tripinfo id="225182646to89932034#0.40" depart="68.50" departLane="225182646_2" departPos="5.10" departSpeed="0.00" departDelay="2.06" arrival="176.50" arrivalLane="89932034#0_0" arrivalPos="261.24" arrivalSpeed="21.07" duration="108.00" routeLength="2501.83" waitingTime="0.00" waitingCount="0" stopTime="0.00" timeLoss="15.28" rerouteNo="1" devices="tripinfo_225182646to89932034#0.40 routing_225182646to89932034#0.40 fcd_225182646to89932034#0.40" vType="DEFAULT_VEHTYPE@225182646to89932034#0.40" speedFactor="0.97" vaporized=""/>
    <tripinfo id="225182646to89932034#0.42" depart="70.00" departLane="225182646_0" departPos="5.10" departSpeed="0.00" departDelay="0.24" arrival="178.00" arrivalLane="89932034#0_0" arrivalPos="261.24" arrivalSpeed="20.93" duration="108.00" routeLength="2501.83" waitingTime="0.00" waitingCount="0" stopTime="0.00" timeLoss="14.90" rerouteNo="1" devices="tripinfo_225182646to89932034#0.42 routing_225182646to89932034#0.42 fcd_225182646to89932034#0.42" vType="DEFAULT_VEHTYPE@225182646to89932034#0.42" speedFactor="0.96" vaporized=""/>
    <tripinfo id="225182646to89932034#0.43" depart="71.50" departLane="225182646_2" departPos="5.10" departSpeed="0.00" departDelay="0.08" arrival="179.50" arrivalLane="89932034#0_0" arrivalPos="261.24" arrivalSpeed="24.03" duration="108.00" routeLength="2501.83" waitingTime="0.00" waitingCount="0" stopTime="0.00" timeLoss="18.76" rerouteNo="1" devices="tripinfo_225182646to89932034#0.43 routing_225182646to89932034#0.43 fcd_225182646to89932034#0.43" vType="DEFAULT_VEHTYPE@225182646to89932034#0.43" speedFactor="1.11" vaporized=""/>
    <tripi    <tripinfo id="225182646to89932034#0.43" depart="71.50" departLane="225182646_2" departPos="5.10" departSpeed="0.00" departDelay="0.08" arrival="181.00" arrivalLane="89932034#0_0" arrivalPos="261.24" arrivalSpeed="23.86" duration="109.50" routeLength="2501.83" waitingTime="0.00" waitingCount="0" stopTime="0.00" timeLoss="20.30" rerouteNo="1" devices="tripinfo_225182646to89932034#0.43 routing_225182646to89932034#0.43 fcd_225182646to89932034#0.43" vType="DEFAULT_VEHTYPE@225182646to89932034#0.43" speedFactor="1.11" vapori    <tripinfo id="38912992#1to38913001#1.83.4" depart="23.50" departLane="38912992#1_0" departPos="5.10" departSpeed="0.00" departDelay="0.31" arrival="182.50" arrivalLane="38913001#1.83_1" arrivalPos="3228.09" arrivalSpeed="24.93" duration="159.00" routeLength="3700.04" waitingTime="0.00" waitingCount="0" stopTime="0.00" timeLoss="7.25" rerouteNo="1" devices="tripinfo_38912992#1to38913001#1.83.4 routing_38912992#1to38913001#1.83.4 fcd_38912992#1to38913001#1.83.4" vType="DEFAULT_VEHTYPE@38912992#1to38913001#1.83.4" speedFactor="0.87" vaporized=""/>